
FAST Summary File

Predictions were generated on 13-Sep-2023 at 14:54:47 using OpenFAST, compiled as a 64-bit application using single precision at commit v3.5.0-59-g900d12b5-dirty
  compiled with
    NWTC Subroutine Library
    ElastoDyn
    BeamDyn (unknown version, unknown date) [not called]
    InflowWind
    AeroDyn14 (unknown version, unknown date) [not called]
    AeroDyn
    ServoDyn
    HydroDyn (unknown version, unknown date) [not called]
    SubDyn (unknown version, unknown date) [not called]
    ExtPtfm_MCKF (unknown version, unknown date) [not called]
    MAP (unknown version, unknown date) [not called]
    FEAMooring (unknown version, unknown date) [not called]
    MoorDyn (unknown version, unknown date) [not called]
    OrcaFlexInterface (unknown version, unknown date) [not called]
    IceFloe (unknown version, unknown date) [not called]
    IceDyn (unknown version, unknown date) [not called]


Modeling a land-based turbine
Description from the FAST input file: 
  Generated with AeroElasticSE FAST driver

Interpolation order for input/output time histories: 2 (quadratic)
Number of correction iterations:  0


   Requested Time Steps  
  -------------------------------------------------
  Component          Time Step (s)    Subcycles (-)
  -----------------  ---------------  -------------
  FAST (glue code)    1.250E-02
  InflowWind          1.250E-02              1
  ElastoDyn           1.250E-02              1
  AeroDyn             1.250E-02              1
  ServoDyn            1.250E-02              1
  FAST output files   1.250E-02              1


   Requested Channels in FAST Output File(s)  
  --------------------------------------------
  Number  Name                  Units                 Generated by
  ------  --------------------  --------------------  ------------
       1  Time                  (s)                   OpenFAST
       2  Wind1VelX             (m/s)                 InflowWind
       3  Wind1VelY             (m/s)                 InflowWind
       4  Wind1VelZ             (m/s)                 InflowWind
       5  OoPDefl1              (m)                   ElastoDyn
       6  OoPDefl2              (m)                   ElastoDyn
       7  OoPDefl3              (m)                   ElastoDyn
       8  IPDefl1               (m)                   ElastoDyn
       9  IPDefl2               (m)                   ElastoDyn
      10  IPDefl3               (m)                   ElastoDyn
      11  TwstDefl1             (deg)                 ElastoDyn
      12  TwstDefl2             (deg)                 ElastoDyn
      13  TwstDefl3             (deg)                 ElastoDyn
      14  BldPitch1             (deg)                 ElastoDyn
      15  BldPitch2             (deg)                 ElastoDyn
      16  BldPitch3             (deg)                 ElastoDyn
      17  Azimuth               (deg)                 ElastoDyn
      18  RotSpeed              (rpm)                 ElastoDyn
      19  GenSpeed              (rpm)                 ElastoDyn
      20  TTDspFA               (m)                   ElastoDyn
      21  TTDspSS               (m)                   ElastoDyn
      22  TTDspTwst             (deg)                 ElastoDyn
      23  RootMxc1              (kN-m)                ElastoDyn
      24  RootMyc1              (kN-m)                ElastoDyn
      25  RootMzc1              (kN-m)                ElastoDyn
      26  RootMxb1              (kN-m)                ElastoDyn
      27  RootMyb1              (kN-m)                ElastoDyn
      28  RootMxc2              (kN-m)                ElastoDyn
      29  RootMyc2              (kN-m)                ElastoDyn
      30  RootMzc2              (kN-m)                ElastoDyn
      31  RootMxb2              (kN-m)                ElastoDyn
      32  RootMyb2              (kN-m)                ElastoDyn
      33  RootMxc3              (kN-m)                ElastoDyn
      34  RootMyc3              (kN-m)                ElastoDyn
      35  RootMzc3              (kN-m)                ElastoDyn
      36  RootMxb3              (kN-m)                ElastoDyn
      37  RootMyb3              (kN-m)                ElastoDyn
      38  RotTorq               (kN-m)                ElastoDyn
      39  RotThrust             (kN)                  ElastoDyn
      40  LSSGagMya             (kN-m)                ElastoDyn
      41  LSSGagMza             (kN-m)                ElastoDyn
      42  YawBrMxp              (kN-m)                ElastoDyn
      43  YawBrMyp              (kN-m)                ElastoDyn
      44  YawBrMzp              (kN-m)                ElastoDyn
      45  TwrBsMxt              (kN-m)                ElastoDyn
      46  TwrBsMyt              (kN-m)                ElastoDyn
      47  TwrBsMzt              (kN-m)                ElastoDyn
      48  RotPwr                (kW)                  ElastoDyn
      49  GenPwr                (kW)                  ServoDyn
      50  GenTq                 (kN-m)                ServoDyn
