
FAST Summary File

Predictions were generated on 10-Sep-2023 at 14:13:04 using OpenFAST, compiled as a 64-bit application using single precision at commit v2.1.0-2958-g24fa8ae2-dirty
  compiled with
    NWTC Subroutine Library
    ElastoDyn
    BeamDyn (unknown version, unknown date) [not called]
    InflowWind
    AeroDyn14 (unknown version, unknown date) [not called]
    AeroDyn
    ServoDyn
    HydroDyn (unknown version, unknown date) [not called]
    SubDyn (unknown version, unknown date) [not called]
    ExtPtfm_MCKF (unknown version, unknown date) [not called]
    MAP (unknown version, unknown date) [not called]
    FEAMooring (unknown version, unknown date) [not called]
    MoorDyn (unknown version, unknown date) [not called]
    OrcaFlexInterface (unknown version, unknown date) [not called]
    IceFloe (unknown version, unknown date) [not called]
    IceDyn (unknown version, unknown date) [not called]


Modeling a land-based turbine
Description from the FAST input file: 
  Generated with AeroElasticSE FAST driver

Interpolation order for input/output time histories: 2 (quadratic)
Number of correction iterations:  0


   Requested Time Steps  
  -------------------------------------------------
  Component          Time Step (s)    Subcycles (-)
  -----------------  ---------------  -------------
  FAST (glue code)    1.000E-02
  InflowWind          1.000E-02              1
  ElastoDyn           1.000E-02              1
  AeroDyn             1.000E-02              1
  ServoDyn            1.000E-02              1
  FAST output files   1.000E-02              1


   Requested Channels in FAST Output File(s)  
  --------------------------------------------
  Number  Name                  Units                 Generated by
  ------  --------------------  --------------------  ------------
       1  Time                  (s)                   OpenFAST
       2  Wind1VelX             (m/s)                 InflowWind
       3  Wind1VelY             (m/s)                 InflowWind
       4  Wind1VelZ             (m/s)                 InflowWind
       5  OoPDefl1              (m)                   ElastoDyn
       6  OoPDefl2              (m)                   ElastoDyn
       7  OoPDefl3              (m)                   ElastoDyn
       8  TipALxb1              (m/s^2)               ElastoDyn
       9  TipALxb2              (m/s^2)               ElastoDyn
      10  TipALxb3              (m/s^2)               ElastoDyn
      11  IPDefl1               (m)                   ElastoDyn
      12  IPDefl2               (m)                   ElastoDyn
      13  IPDefl3               (m)                   ElastoDyn
      14  TwstDefl1             (deg)                 ElastoDyn
      15  TwstDefl2             (deg)                 ElastoDyn
      16  TwstDefl3             (deg)                 ElastoDyn
      17  TipDxb1               (m)                   ElastoDyn
      18  TipDxb2               (m)                   ElastoDyn
      19  TipDxb3               (m)                   ElastoDyn
      20  BldPitch1             (deg)                 ElastoDyn
      21  BldPitch2             (deg)                 ElastoDyn
      22  BldPitch3             (deg)                 ElastoDyn
      23  Azimuth               (deg)                 ElastoDyn
      24  TwrClrnc1             (m)                   ElastoDyn
      25  TwrClrnc2             (m)                   ElastoDyn
      26  TwrClrnc3             (m)                   ElastoDyn
      27  RotSpeed              (rpm)                 ElastoDyn
      28  GenSpeed              (rpm)                 ElastoDyn
      29  TTDspFA               (m)                   ElastoDyn
      30  TTDspSS               (m)                   ElastoDyn
      31  TTDspTwst             (deg)                 ElastoDyn
      32  RootFxc1              (kN)                  ElastoDyn
      33  RootFyc1              (kN)                  ElastoDyn
      34  RootFzc1              (kN)                  ElastoDyn
      35  RootMxc1              (kN-m)                ElastoDyn
      36  RootMyc1              (kN-m)                ElastoDyn
      37  RootMzc1              (kN-m)                ElastoDyn
      38  RootMxb1              (kN-m)                ElastoDyn
      39  RootMyb1              (kN-m)                ElastoDyn
      40  RootFxc2              (kN)                  ElastoDyn
      41  RootFyc2              (kN)                  ElastoDyn
      42  RootFzc2              (kN)                  ElastoDyn
      43  RootMxc2              (kN-m)                ElastoDyn
      44  RootMyc2              (kN-m)                ElastoDyn
      45  RootMzc2              (kN-m)                ElastoDyn
      46  RootMxb2              (kN-m)                ElastoDyn
      47  RootMyb2              (kN-m)                ElastoDyn
      48  RootFxc3              (kN)                  ElastoDyn
      49  RootFyc3              (kN)                  ElastoDyn
      50  RootFzc3              (kN)                  ElastoDyn
      51  RootMxc3              (kN-m)                ElastoDyn
      52  RootMyc3              (kN-m)                ElastoDyn
      53  RootMzc3              (kN-m)                ElastoDyn
      54  RootMxb3              (kN-m)                ElastoDyn
      55  RootMyb3              (kN-m)                ElastoDyn
      56  RotTorq               (kN-m)                ElastoDyn
      57  RotThrust             (kN)                  ElastoDyn
      58  LSSGagMya             (kN-m)                ElastoDyn
      59  LSSGagMza             (kN-m)                ElastoDyn
      60  LSShftMxa             (kN-m)                ElastoDyn
      61  HSShftTq              (kN-m)                ElastoDyn
      62  HSSBrTq               (kN-m)                ElastoDyn
      63  YawBrFxp              (kN)                  ElastoDyn
      64  YawBrFyp              (kN)                  ElastoDyn
      65  YawBrFzp              (kN)                  ElastoDyn
      66  YawBrMxp              (kN-m)                ElastoDyn
      67  YawBrMyp              (kN-m)                ElastoDyn
      68  YawBrMzp              (kN-m)                ElastoDyn
      69  TwrBsFxt              (kN)                  ElastoDyn
      70  TwrBsFyt              (kN)                  ElastoDyn
      71  TwrBsFzt              (kN)                  ElastoDyn
      72  TwrBsMxt              (kN-m)                ElastoDyn
      73  TwrBsMyt              (kN-m)                ElastoDyn
      74  TwrBsMzt              (kN-m)                ElastoDyn
      75  YawPzn                (deg)                 ElastoDyn
      76  YawVzn                (deg/s)               ElastoDyn
      77  YawAzn                (deg/s^2)             ElastoDyn
      78  RotPwr                (kW)                  ElastoDyn
      79  LSSTipMya             (kN-m)                ElastoDyn
      80  LSSTipMza             (kN-m)                ElastoDyn
      81  LSSTipMys             (kN-m)                ElastoDyn
      82  LSSTipMzs             (kN-m)                ElastoDyn
      83  RotTeetP              INVALID               ElastoDyn
      84  YawBrRVyp             (deg/s)               ElastoDyn
      85  RtAeroFxh             (N)                   AeroDyn
      86  RtAeroFyh             (N)                   AeroDyn
      87  RtAeroFzh             (N)                   AeroDyn
      88  RtAeroMxh             (N-m)                 AeroDyn
      89  RtAeroMyh             (N-m)                 AeroDyn
      90  RtAeroMzh             (N-m)                 AeroDyn
      91  RtAeroPwr             (W)                   AeroDyn
      92  RtArea                (m^2)                 AeroDyn
      93  RtSkew                (deg)                 AeroDyn
      94  RtSpeed               (rpm)                 AeroDyn
      95  RtTSR                 (-)                   AeroDyn
      96  GenPwr                (kW)                  ServoDyn
      97  GenTq                 (kN-m)                ServoDyn
