
FAST Summary File

Predictions were generated on 12-Sep-2023 at 00:19:39 using OpenFAST, compiled as a 64-bit application using single precision at commit v3.5.0-59-g900d12b5-dirty
  compiled with
    NWTC Subroutine Library
    ElastoDyn
    BeamDyn (unknown version, unknown date) [not called]
    InflowWind
    AeroDyn14 (unknown version, unknown date) [not called]
    AeroDyn
    ServoDyn
    HydroDyn (unknown version, unknown date) [not called]
    SubDyn (unknown version, unknown date) [not called]
    ExtPtfm_MCKF (unknown version, unknown date) [not called]
    MAP (unknown version, unknown date) [not called]
    FEAMooring (unknown version, unknown date) [not called]
    MoorDyn (unknown version, unknown date) [not called]
    OrcaFlexInterface (unknown version, unknown date) [not called]
    IceFloe (unknown version, unknown date) [not called]
    IceDyn (unknown version, unknown date) [not called]


Modeling a land-based turbine
Description from the FAST input file: 
  Generated with AeroElasticSE FAST driver

Interpolation order for input/output time histories: 2 (quadratic)
Number of correction iterations:  0


   Requested Time Steps  
  -------------------------------------------------
  Component          Time Step (s)    Subcycles (-)
  -----------------  ---------------  -------------
  FAST (glue code)    1.250E-02
  InflowWind          1.250E-02              1
  ElastoDyn           1.250E-02              1
  AeroDyn             1.250E-02              1
  ServoDyn            1.250E-02              1
  FAST output files   1.250E-02              1


   Requested Channels in FAST Output File(s)  
  --------------------------------------------
  Number  Name                  Units                 Generated by
  ------  --------------------  --------------------  ------------
       1  Time                  (s)                   OpenFAST
       2  Wind1VelX             (m/s)                 InflowWind
       3  Wind1VelY             (m/s)                 InflowWind
       4  Wind1VelZ             (m/s)                 InflowWind
       5  OoPDefl1              (m)                   ElastoDyn
       6  OoPDefl2              (m)                   ElastoDyn
       7  OoPDefl3              (m)                   ElastoDyn
       8  TipALxb1              (m/s^2)               ElastoDyn
       9  TipALxb2              (m/s^2)               ElastoDyn
      10  TipALxb3              (m/s^2)               ElastoDyn
      11  IPDefl1               (m)                   ElastoDyn
      12  IPDefl2               (m)                   ElastoDyn
      13  IPDefl3               (m)                   ElastoDyn
      14  TwstDefl1             (deg)                 ElastoDyn
      15  TwstDefl2             (deg)                 ElastoDyn
      16  TwstDefl3             (deg)                 ElastoDyn
      17  TipDxb1               (m)                   ElastoDyn
      18  TipDxb2               (m)                   ElastoDyn
      19  TipDxb3               (m)                   ElastoDyn
      20  BldPitch1             (deg)                 ElastoDyn
      21  BldPitch2             (deg)                 ElastoDyn
      22  BldPitch3             (deg)                 ElastoDyn
      23  Azimuth               (deg)                 ElastoDyn
      24  TwrClrnc1             (m)                   ElastoDyn
      25  TwrClrnc2             (m)                   ElastoDyn
      26  TwrClrnc3             (m)                   ElastoDyn
      27  RotSpeed              (rpm)                 ElastoDyn
      28  GenSpeed              (rpm)                 ElastoDyn
      29  TTDspFA               (m)                   ElastoDyn
      30  TTDspSS               (m)                   ElastoDyn
      31  TTDspTwst             (deg)                 ElastoDyn
      32  RootFxc1              (kN)                  ElastoDyn
      33  RootFyc1              (kN)                  ElastoDyn
      34  RootFzc1              (kN)                  ElastoDyn
      35  RootMxc1              (kN-m)                ElastoDyn
      36  RootMyc1              (kN-m)                ElastoDyn
      37  RootMzc1              (kN-m)                ElastoDyn
      38  RootMxb1              (kN-m)                ElastoDyn
      39  RootMyb1              (kN-m)                ElastoDyn
      40  RootFxc2              (kN)                  ElastoDyn
      41  RootFyc2              (kN)                  ElastoDyn
      42  RootFzc2              (kN)                  ElastoDyn
      43  RootMxc2              (kN-m)                ElastoDyn
      44  RootMyc2              (kN-m)                ElastoDyn
      45  RootMzc2              (kN-m)                ElastoDyn
      46  RootMxb2              (kN-m)                ElastoDyn
      47  RootMyb2              (kN-m)                ElastoDyn
      48  RootFxc3              (kN)                  ElastoDyn
      49  RootFyc3              (kN)                  ElastoDyn
      50  RootFzc3              (kN)                  ElastoDyn
      51  RootMxc3              (kN-m)                ElastoDyn
      52  RootMyc3              (kN-m)                ElastoDyn
      53  RootMzc3              (kN-m)                ElastoDyn
      54  RootMxb3              (kN-m)                ElastoDyn
      55  RootMyb3              (kN-m)                ElastoDyn
      56  RotTorq               (kN-m)                ElastoDyn
      57  RotThrust             (kN)                  ElastoDyn
      58  LSSGagMya             (kN-m)                ElastoDyn
      59  LSSGagMza             (kN-m)                ElastoDyn
      60  LSShftMxa             (kN-m)                ElastoDyn
      61  YawBrFxp              (kN)                  ElastoDyn
      62  YawBrFyp              (kN)                  ElastoDyn
      63  YawBrFzp              (kN)                  ElastoDyn
      64  YawBrMxp              (kN-m)                ElastoDyn
      65  YawBrMyp              (kN-m)                ElastoDyn
      66  YawBrMzp              (kN-m)                ElastoDyn
      67  TwrBsFxt              (kN)                  ElastoDyn
      68  TwrBsFyt              (kN)                  ElastoDyn
      69  TwrBsFzt              (kN)                  ElastoDyn
      70  TwrBsMxt              (kN-m)                ElastoDyn
      71  TwrBsMyt              (kN-m)                ElastoDyn
      72  TwrBsMzt              (kN-m)                ElastoDyn
      73  RotPwr                (kW)                  ElastoDyn
      74  RtSpeed               (rpm)                 AeroDyn
      75  RtTSR                 (-)                   AeroDyn
      76  GenPwr                (kW)                  ServoDyn
      77  GenTq                 (kN-m)                ServoDyn
