
Predictions were generated on 10-Sep-2023 at 14:13:04
 OpenFAST



AirfoilNumber    TableNumber      alpha0           alpha1           alpha2           eta_e            C_nalpha         C_lalpha         T_f0             T_V0             T_p              T_VL             b1               b2               b5               A1               A2               A5               S1               S2               S3               S4               Cn1              Cn2              St_sh            Cd0              Cm0              k0               k1               k2               k3               k1_hat           x_cp_bar         UACutout         UACutout_delta   UACutout_blend   filtCutOff       alphaLowerWrap   alphaLower       alphaUpper       alphaUpperWrap   c_alphaLowerWrap c_alphaLower     c_alphaUpper     c_alphaUpperWrap c_RateWrap       c_RateLower      c_Rate           c_RateUpper     
(-)              (-)              (deg)            (deg)            (deg)            (-)              (-/rad)          (-/rad)          (-)              (-)              (-)              (-)              (-)              (-)              (-)              (-)              (-)              (-)              (-)              (-)              (-)              (-)              (-)              (-)              (-)              (-)              (-)              (-)              (-)              (-)              (-)              (-)              (-)              (deg)            (deg)            (deg)            (-)              (deg)            (deg)            (deg)            (deg)            (-)              (-)              (-)              (-)              (-/rad)          (-/rad)          (-/rad)          (-/rad)         
               1                1          0.00000          0.00000          0.00000          0.00000          0.00000          0.00000          0.00000          0.00000          0.00000          0.00000          0.00000          0.00000          0.00000          0.00000          0.00000          0.00000          0.00000          0.00000          0.00000          0.00000          0.00000          0.00000          0.00000          0.00000          0.00000          0.00000          0.00000          0.00000          0.00000          0.00000          0.00000          0.00000          0.00000          0.00000          0.00000          0.00000          0.00000          0.00000          0.00000          0.00000          0.00000          0.00000          0.00000          0.00000          0.00000          0.00000          0.00000 
               2                1          0.00000          0.00000          0.00000          0.00000          0.00000          0.00000          0.00000          0.00000          0.00000          0.00000          0.00000          0.00000          0.00000          0.00000          0.00000          0.00000          0.00000          0.00000          0.00000          0.00000          0.00000          0.00000          0.00000          0.00000          0.00000          0.00000          0.00000          0.00000          0.00000          0.00000          0.00000          0.00000          0.00000          0.00000          0.00000          0.00000          0.00000          0.00000          0.00000          0.00000          0.00000          0.00000          0.00000          0.00000          0.00000          0.00000          0.00000 
               3                1          0.00000          0.00000          0.00000          1.00000          0.00000          0.29520          3.00000          6.00000          1.70000         11.00000          0.14000          0.53000          5.00000          0.30000          0.70000          1.00000          0.00000          0.00000          0.00000          0.00000          0.00000          0.00000          0.19000          0.00000          0.00000          0.00000          0.00000          0.00000          0.00000          0.00000          0.20000         45.00000          5.00000         40.00000          0.50000       -120.00000        -18.78788         -6.66667        140.99998         -1.14600         -0.11749         -0.03178          1.13584         -1.32060          0.58223          0.40517          0.45304 
               4                1          0.00000          0.00000          0.00000          1.00000          0.00000          4.02432          3.00000          6.00000          1.70000         11.00000          0.14000          0.53000          5.00000          0.30000          0.70000          1.00000          0.00000          0.00000          0.00000          0.00000          0.00000          0.00000          0.19000          0.00000          0.00000          0.00000          0.00000          0.00000          0.00000          0.00000          0.20000         45.00000          5.00000         40.00000          0.50000        -84.00000        -18.78788         -9.69697        147.00000         -5.29414         -0.49579         -0.07531          3.76554         -4.02389          4.21586          2.65007          1.40440 
               5                1         -7.34294         27.24885        -31.86365          1.00000          3.88736          4.15419          3.00000          6.00000          1.70000         11.00000          0.14000          0.53000          5.00000          0.30000          0.70000          1.00000          0.00000          0.00000          0.00000          0.00000          2.02689         -1.42676          0.19000          0.16248         -0.08246          0.00000          0.00000          0.00000          0.00000          0.00000          0.20000         45.00000          5.00000         40.00000          0.50000       -107.99999        -19.39394          7.87879        104.99999         -7.29827         -0.84469          0.96878          6.88208         -5.52703          4.17311          3.80983          3.48849 
               6                1         -7.32444         27.36300        -31.64293          1.00000          4.05559          4.19206          3.00000          6.00000          1.70000         11.00000          0.14000          0.53000          5.00000          0.30000          0.70000          1.00000          0.00000          0.00000          0.00000          0.00000          2.05926         -1.48216          0.19000          0.14865         -0.09131          0.00000          0.00000          0.00000          0.00000          0.00000          0.20000         45.00000          5.00000         40.00000          0.50000       -104.99999        -19.39394          4.84848        104.99999         -7.17227         -0.88092          0.81586          7.26532         -5.51476          4.21077          4.01027          3.68968 
               7                1         -7.32444         26.85408        -31.28590          1.00000          4.05279          4.23497          3.00000          6.00000          1.70000         11.00000          0.14000          0.53000          5.00000          0.30000          0.70000          1.00000          0.00000          0.00000          0.00000          0.00000          2.02352         -1.46485          0.19000          0.14865         -0.09131          0.00000          0.00000          0.00000          0.00000          0.00000          0.20000         45.00000          5.00000         40.00000          0.50000       -101.99999        -19.39394          1.81818        107.99999         -7.01343         -0.88759          0.61975          7.47887         -5.53565          4.24890          4.07145          3.70119 
               8                1         -7.32444         26.45076        -30.96088          1.00000          4.05067          4.26748          3.00000          6.00000          1.70000         11.00000          0.14000          0.53000          5.00000          0.30000          0.70000          1.00000          0.00000          0.00000          0.00000          0.00000          2.00239         -1.45942          0.19000          0.14865         -0.09131          0.00000          0.00000          0.00000          0.00000          0.00000          0.20000         45.00000          5.00000         40.00000          0.50000       -101.99999        -18.78788          1.21212        104.99999         -7.08319         -0.84731          0.57943          7.54443         -5.47779          4.29372          4.08731          3.84501 
               9                1         -7.26930         24.83148        -29.13475          1.00000          4.32564          4.45512          3.00000          6.00000          1.70000         11.00000          0.14000          0.53000          5.00000          0.30000          0.70000          1.00000          0.00000          0.00000          0.00000          0.00000          2.04028         -1.46448          0.19000          0.13857         -0.09892          0.00000          0.00000          0.00000          0.00000          0.00000          0.20000         45.00000          5.00000         40.00000          0.50000       -101.99999        -18.78788          1.21212        101.99999         -7.13534         -0.88238          0.61849          7.86460         -5.50919          4.30548          4.29969          4.11926 
              10                1         -6.84094         13.66767        -14.07610          1.00000          6.15078          6.42984          3.00000          6.00000          1.70000         11.00000          0.14000          0.53000          5.00000          0.30000          0.70000          1.00000          0.00000          0.00000          0.00000          0.00000          2.23056         -1.55816          0.19000          0.07968         -0.14811          0.00000          0.00000          0.00000          0.00000          0.00000          0.20000         45.00000          5.00000         40.00000          0.50000       -107.99999        -10.30303          0.60606         54.00000         -7.72631         -0.36310          0.80093          6.43636         -4.09829          4.31826          6.11361          6.04724 
              11                1         -6.50939         10.98536        -11.87304          1.00000          7.61938          8.15026          3.00000          6.00000          1.70000         11.00000          0.14000          0.53000          5.00000          0.30000          0.70000          1.00000          0.00000          0.00000          0.00000          0.00000          2.30781         -1.59879          0.19000          0.03021         -0.18534          0.00000          0.00000          0.00000          0.00000          0.00000          0.20000         45.00000          5.00000         40.00000          0.50000        -57.00000         -9.69697          0.60606         45.00000         -6.97752         -0.44173          0.96659          6.76997         -3.05300          7.91647          7.83178          7.48997 
              12                1         -6.30454         10.43089        -11.85372          1.00000          7.75356          8.99158          3.00000          6.00000          1.70000         11.00000          0.14000          0.53000          5.00000          0.30000          0.70000          1.00000          0.00000          0.00000          0.00000          0.00000          2.24967         -1.54820          0.19000          0.02184         -0.18298          0.00000          0.00000          0.00000          0.00000          0.00000          0.20000         45.00000          5.00000         40.00000          0.50000        -51.00000         -9.69697         -1.81818         45.00000         -6.21833         -0.48846          0.62972          7.00556         -2.86997          7.94851          8.13159          7.80270 
              13                1         -6.01937         10.70379        -11.81197          1.00000          7.69571          9.03267          3.00000          6.00000          1.70000         11.00000          0.14000          0.53000          5.00000          0.30000          0.70000          1.00000          0.00000          0.00000          0.00000          0.00000          2.13644         -1.44052          0.19000          0.01575         -0.17265          0.00000          0.00000          0.00000          0.00000          0.00000          0.20000         45.00000          5.00000         40.00000          0.50000        -54.00000         -8.48485          0.60606         42.00000         -6.74508         -0.35981          0.89478          6.26156         -2.82282          8.03796          7.90708          7.42849 
              14                1         -5.69427         11.13172        -11.69727          1.00000          7.59752          8.61266          3.00000          6.00000          1.70000         11.00000          0.14000          0.53000          5.00000          0.30000          0.70000          1.00000          0.00000          0.00000          0.00000          0.00000          2.02748         -1.31824          0.19000          0.01135         -0.16022          0.00000          0.00000          0.00000          0.00000          0.00000          0.20000         45.00000          5.00000         40.00000          0.50000        -54.00000         -8.48485          1.21212         42.00000         -6.60745         -0.39536          0.91233          6.09521         -2.75685          7.81996          7.72664          7.28052 
              15                1         -5.38654         11.38032        -11.51523          1.00000          7.51116          8.09381          3.00000          6.00000          1.70000         11.00000          0.14000          0.53000          5.00000          0.30000          0.70000          1.00000          0.00000          0.00000          0.00000          0.00000          1.94293         -1.20701          0.19000          0.00852         -0.14928          0.00000          0.00000          0.00000          0.00000          0.00000          0.20000         45.00000          5.00000         40.00000          0.50000        -60.00000         -9.09091          3.63636         39.00000         -7.20459         -0.50026          1.16332          5.47099         -2.78259          7.54540          7.48912          6.97925 
              16                1         -5.19376         11.39526        -11.39975          1.00000          7.44601          7.72381          3.00000          6.00000          1.70000         11.00000          0.14000          0.53000          5.00000          0.30000          0.70000          1.00000          0.00000          0.00000          0.00000          0.00000          1.87806         -2.01000          0.19000          0.00705         -0.14165          0.00000          0.00000          0.00000          0.00000          0.00000          0.20000         45.00000          5.00000         40.00000          0.50000        -66.00000         -9.09091          4.84848         36.00000         -7.89881         -0.51254          1.28466          4.98584         -2.86138          7.43646          7.38713          6.80743 
              17                1         -5.13613         11.20299        -11.37599          1.00000          7.40760          7.60488          3.00000          6.00000          1.70000         11.00000          0.14000          0.53000          5.00000          0.30000          0.70000          1.00000          0.00000          0.00000          0.00000          0.00000          1.83166         -2.01000          0.19000          0.00666         -0.13806          0.00000          0.00000          0.00000          0.00000          0.00000          0.20000         45.00000          5.00000         40.00000          0.50000        -66.00000         -9.09091          4.84848         36.00000         -7.86871         -0.51585          1.26990          4.90255         -2.83620          7.40283          7.34007          6.68138 
              18                1         -5.16963         10.92687        -11.44135          1.00000          7.35137          7.54889          3.00000          6.00000          1.70000         11.00000          0.14000          0.53000          5.00000          0.30000          0.70000          1.00000          0.00000          0.00000          0.00000          0.00000          1.79570         -2.01000          0.19000          0.00668         -0.13645          0.00000          0.00000          0.00000          0.00000          0.00000          0.20000         45.00000          5.00000         40.00000          0.50000        -66.00000         -9.09091          4.24242         33.00000         -7.80272         -0.50747          1.19212          4.63871         -2.73119          7.34482          7.30346          6.86689 
              19                1         -5.23887         10.66409        -11.55329          1.00000          7.26253          7.47880          3.00000          6.00000          1.70000         11.00000          0.14000          0.53000          5.00000          0.30000          0.70000          1.00000          0.00000          0.00000          0.00000          0.00000          1.76182         -1.00707          0.19000          0.00673         -0.13515          0.00000          0.00000          0.00000          0.00000          0.00000          0.20000         45.00000          5.00000         40.00000          0.50000        -68.99999         -9.09091          4.24242         33.00000         -8.03161         -0.49019          1.18872          4.59128         -2.80325          7.21245          7.21459          6.77916 
              20                1         -5.31068         10.41926        -11.65182          1.00000          7.17126          7.36369          3.00000          6.00000          1.70000         11.00000          0.14000          0.53000          5.00000          0.30000          0.70000          1.00000          0.00000          0.00000          0.00000          0.00000          1.73199         -1.03862          0.19000          0.00679         -0.13409          0.00000          0.00000          0.00000          0.00000          0.00000          0.20000         45.00000          5.00000         40.00000          0.50000        -74.99999         -9.09091          4.24242         33.00000         -8.58036         -0.47203          1.18551          4.54572         -2.98440          7.04870          7.12273          6.69478 
              21                1         -5.36164         10.21030        -11.67853          1.00000          7.09921          7.27213          3.00000          6.00000          1.70000         11.00000          0.14000          0.53000          5.00000          0.30000          0.70000          1.00000          0.00000          0.00000          0.00000          0.00000          1.70800         -1.06012          0.19000          0.00683         -0.13326          0.00000          0.00000          0.00000          0.00000          0.00000          0.20000         45.00000          5.00000         40.00000          0.50000        -74.99999         -9.09091          3.63636         33.00000         -8.38579         -0.45835          1.11237          4.49266         -2.92810          6.89144          7.07107          6.59579 
              22                1         -5.38448         10.04650        -11.61579          1.00000          7.05436          7.25316          3.00000          6.00000          1.70000         11.00000          0.14000          0.53000          5.00000          0.30000          0.70000          1.00000          0.00000          0.00000          0.00000          0.00000          1.69025         -1.06817          0.19000          0.00685         -0.13263          0.00000          0.00000          0.00000          0.00000          0.00000          0.20000         45.00000          5.00000         40.00000          0.50000        -78.00000         -8.48485          3.63636         30.00000         -8.80389         -0.37835          1.10855          4.09402         -2.93252          6.94450          7.02844          6.48829 
              23                1         -5.38733          9.93192        -11.51356          1.00000          7.03131          7.24816          3.00000          6.00000          1.70000         11.00000          0.14000          0.53000          5.00000          0.30000          0.70000          1.00000          0.00000          0.00000          0.00000          0.00000          1.67862         -1.06522          0.19000          0.00685         -0.13222          0.00000          0.00000          0.00000          0.00000          0.00000          0.20000         45.00000          5.00000         40.00000          0.50000        -80.99999         -8.48485          3.63636         33.00000         -9.02396         -0.37663          1.10488          4.38392         -3.12282          6.83244          7.00296          6.39822 
              24                1         -5.37604          9.95082        -11.38270          1.00000          6.99273          7.20286          3.00000          6.00000          1.70000         11.00000          0.14000          0.53000          5.00000          0.30000          0.70000          1.00000          0.00000          0.00000          0.00000          0.00000          1.67054         -1.02569          0.19000          0.00682         -0.13192          0.00000          0.00000          0.00000          0.00000          0.00000          0.20000         45.00000          5.00000         40.00000          0.50000        -78.00000         -8.48485          3.03030         33.00000         -8.56178         -0.37590          1.02917          4.46712         -2.99800          6.74696          6.99121          6.57265 
              25                1         -5.35639         10.06200        -11.25609          1.00000          6.94084          7.12794          3.00000          6.00000          1.70000         11.00000          0.14000          0.53000          5.00000          0.30000          0.70000          1.00000          0.00000          0.00000          0.00000          0.00000          1.66438         -0.96135          0.19000          0.00676         -0.13166          0.00000          0.00000          0.00000          0.00000          0.00000          0.20000         45.00000          5.00000         40.00000          0.50000        -80.99999         -8.48485          3.03030         33.00000         -8.83586         -0.37540          1.01954          4.42991         -3.08973          6.68479          6.94079          6.51993 
              26                1         -5.33571         10.18663        -11.15799          1.00000          6.89190          7.10494          3.00000          6.00000          1.70000         11.00000          0.14000          0.53000          5.00000          0.30000          0.70000          1.00000          0.00000          0.00000          0.00000          0.00000          1.65916         -0.89661          0.19000          0.00670         -0.13144          0.00000          0.00000          0.00000          0.00000          0.00000          0.20000         45.00000          5.00000         40.00000          0.50000        -80.99999         -8.48485          3.03030         33.00000         -8.78869         -0.37510          1.01023          4.39702         -3.07108          6.64776          6.89297          6.47482 
              27                1         -5.31931         10.27972        -11.08967          1.00000          6.85595          7.09356          3.00000          6.00000          1.70000         11.00000          0.14000          0.53000          5.00000          0.30000          0.70000          1.00000          0.00000          0.00000          0.00000          0.00000          1.65435         -0.84647          0.19000          0.00665         -0.13127          0.00000          0.00000          0.00000          0.00000          0.00000          0.20000         45.00000          5.00000         40.00000          0.50000        -80.99999         -8.48485          3.63636         33.00000         -8.76760         -0.37495          1.07024          4.25971         -3.03419          6.63121          6.83130          6.22345 
              28                1         -5.31014         10.32283        -11.05182          1.00000          6.83680          7.08826          3.00000          6.00000          1.70000         11.00000          0.14000          0.53000          5.00000          0.30000          0.70000          1.00000          0.00000          0.00000          0.00000          0.00000          1.65161         -2.01000          0.19000          0.00663         -0.13117          0.00000          0.00000          0.00000          0.00000          0.00000          0.20000         45.00000          5.00000         40.00000          0.50000        -78.00000         -8.48485          3.03030         33.00000         -8.41448         -0.37489          0.99953          4.35638         -2.93862          6.62639          6.83869          6.41760 
              29                1         -5.30875         10.31510        -11.04197          1.00000          6.83362          7.08789          3.00000          6.00000          1.70000         11.00000          0.14000          0.53000          5.00000          0.30000          0.70000          1.00000          0.00000          0.00000          0.00000          0.00000          1.64970         -2.01000          0.19000          0.00662         -0.13116          0.00000          0.00000          0.00000          0.00000          0.00000          0.20000         45.00000          5.00000         40.00000          0.50000        -78.00000         -8.48485          3.03030         33.00000         -8.41315         -0.37486          0.99893          4.35323         -2.93759          6.62532          6.83556          6.41272 
              30                1         -5.30875         10.29956        -11.03730          1.00000          6.83323          7.08830          3.00000          6.00000          1.70000         11.00000          0.14000          0.53000          5.00000          0.30000          0.70000          1.00000          0.00000          0.00000          0.00000          0.00000          1.64790         -2.01000          0.19000          0.00662         -0.13116          0.00000          0.00000          0.00000          0.00000          0.00000          0.20000         45.00000          5.00000         40.00000          0.50000        -78.00000         -8.48485          3.03030         33.00000         -8.41224         -0.37484          0.99888          4.35230         -2.93717          6.62459          6.83519          6.41104 
